MODEL 1
REMARK VINA RESULT:    -9.354      0.000      0.000
REMARK INTER + INTRA:         -12.177
REMARK INTER:                 -12.908
REMARK INTRA:                   0.731
REMARK UNBOUND:                 0.731
REMARK SMILES CCOc1ccccc1-n1c([C@H](C)N2CCN(C(=O)COc3ccc(Cl)cc3)CC2)nc2ccccc2c1=O
REMARK SMILES IDX 12 1 13 2 11 3 10 4 31 5 38 6 32 7 37 8 39 9 33 10 36 11
REMARK SMILES IDX 34 12 35 13 9 14 4 15 8 16 5 17 7 18 6 19 3 20 2 21 1 22
REMARK SMILES IDX 14 23 15 24 30 25 16 26 29 27 17 28 18 29 19 30 20 31 21 32
REMARK SMILES IDX 22 33 28 34 23 35 27 36 24 37 25 38 26 39
REMARK H PARENT
ROOT
ATOM      1  C   UNL     1     145.663 146.400 125.025  1.00  0.00    +0.121 C 
ATOM      2  C   UNL     1     144.241 146.938 124.216  1.00  0.00    +0.033 C 
ENDROOT
BRANCH   1   3
ATOM      3  C   UNL     1     147.013 147.351 124.529  1.00  0.00    +0.134 A 
ATOM      4  N   UNL     1     147.750 146.942 123.468  1.00  0.00    -0.259 N 
ATOM      5  N   UNL     1     147.327 148.482 125.196  1.00  0.00    -0.232 NA
ATOM      6  C   UNL     1     148.799 147.647 123.060  1.00  0.00    +0.266 A 
ATOM      7  C   UNL     1     148.367 149.193 124.800  1.00  0.00    +0.078 A 
ATOM      8  C   UNL     1     149.120 148.792 123.730  1.00  0.00    +0.066 A 
ATOM      9  O   UNL     1     149.437 147.282 122.128  1.00  0.00    -0.268 OA
ATOM     10  C   UNL     1     148.691 150.357 125.484  1.00  0.00    +0.029 A 
ATOM     11  C   UNL     1     150.207 149.566 123.341  1.00  0.00    +0.016 A 
ATOM     12  C   UNL     1     149.769 151.118 125.093  1.00  0.00    +0.002 A 
ATOM     13  C   UNL     1     150.529 150.722 124.021  1.00  0.00    +0.001 A 
BRANCH   4  14
ATOM     14  C   UNL     1     147.347 145.712 122.807  1.00  0.00    +0.092 A 
ATOM     15  C   UNL     1     146.505 145.765 121.708  1.00  0.00    +0.143 A 
ATOM     16  C   UNL     1     147.817 144.498 123.269  1.00  0.00    +0.031 A 
ATOM     17  C   UNL     1     146.130 144.594 121.075  1.00  0.00    +0.049 A 
ATOM     18  C   UNL     1     147.440 143.329 122.635  1.00  0.00    +0.002 A 
ATOM     19  C   UNL     1     146.597 143.377 121.538  1.00  0.00    +0.004 A 
BRANCH  15  20
ATOM     20  O   UNL     1     146.040 147.003 121.247  1.00  0.00    -0.492 OA
BRANCH  20  21
ATOM     21  C   UNL     1     145.175 146.937 120.147  1.00  0.00    +0.226 C 
ATOM     22  C   UNL     1     143.784 147.416 120.554  1.00  0.00    +0.049 C 
ENDBRANCH  20  21
ENDBRANCH  15  20
ENDBRANCH   4  14
ENDBRANCH   1   3
BRANCH   1  23
ATOM     23  N   UNL     1     145.556 146.124 126.107  1.00  0.00    -0.290 NA
ATOM     24  C   UNL     1     145.001 146.651 126.709  1.00  0.00    +0.107 C 
ATOM     25  C   UNL     1     145.977 145.064 126.236  1.00  0.00    +0.107 C 
ATOM     26  C   UNL     1     145.633 146.824 128.266  1.00  0.00    +0.135 C 
ATOM     27  C   UNL     1     146.775 144.851 127.697  1.00  0.00    +0.135 C 
ATOM     28  N   UNL     1     146.324 145.743 128.545  1.00  0.00    -0.337 N 
ATOM     29  C   UNL     1     146.614 145.499 129.966  1.00  0.00    +0.260 C 
ATOM     30  O   UNL     1     146.249 146.243 130.821  1.00  0.00    -0.271 OA
BRANCH  29  31
ATOM     31  C   UNL     1     147.405 144.267 130.412  1.00  0.00    +0.329 C 
BRANCH  31  32
ATOM     32  O   UNL     1     146.641 143.545 131.333  1.00  0.00    -0.484 OA
BRANCH  32  33
ATOM     33  C   UNL     1     146.024 142.421 130.780  1.00  0.00    +0.120 A 
ATOM     34  C   UNL     1     144.796 141.962 131.303  1.00  0.00    +0.048 A 
ATOM     35  C   UNL     1     146.631 141.742 129.700  1.00  0.00    +0.048 A 
ATOM     36  C   UNL     1     144.171 140.823 130.746  1.00  0.00    +0.024 A 
ATOM     37  C   UNL     1     146.007 140.603 129.141  1.00  0.00    +0.024 A 
ATOM     38  C   UNL     1     144.777 140.143 129.664  1.00  0.00    +0.041 A 
ATOM     39 Cl   UNL     1     143.987 138.708 128.959  1.00  0.00    -0.084 Cl
ENDBRANCH  32  33
ENDBRANCH  31  32
ENDBRANCH  29  31
ENDBRANCH   1  23
TORSDOF 8
ENDMDL
