MODEL 1
REMARK VINA RESULT:    -7.063      0.000      0.000
REMARK INTER + INTRA:         -24.092
REMARK INTER:                 -18.832
REMARK INTRA:                  -5.261
REMARK UNBOUND:                -5.261
REMARK SMILES CO[C@H]1C[C@@H]2CC[C@@H](C)[C@@](O)(O2)C(=O)C(=O)N2CCCC[C@H]2C(=O)O[C@H]([C@H](C)C[C@@H]2CC[C@@H](O)[C@H](OC)C2)CC(=O)[C@H](C)/C=C(\C)[C@@H](O)[C@@H](OC)C(=O)[C@H](C)C[C@H](C)/C=C/C=C/C=C/1C
REMARK SMILES IDX 22 1 21 2 20 3 19 4 18 5 17 6 23 7 24 8 25 9 26 10 39 11
REMARK SMILES IDX 40 12 41 13 42 14 43 15 44 16 45 17 46 18 47 19 49 20 52 21
REMARK SMILES IDX 53 22 50 24 51 25 48 26 27 28 28 29 29 30 30 31 38 32 31 33
REMARK SMILES IDX 35 34 32 35 33 36 36 37 37 38 34 39 15 41 16 42 13 43 14 44
REMARK SMILES IDX 10 45 8 46 12 47 7 48 5 49 6 50 9 51 11 52 4 54 3 55 2 56
REMARK SMILES IDX 1 57 64 58 63 59 65 60 62 61 61 62 60 63 59 64 57 65 58 66
REMARK SMILES IDX 56 67 54 68 55 69
REMARK H PARENT 48 27 34 40 11 53
REMARK Flexibility Score:  319.900
ROOT
ATOM      1  C   UNL     1       3.882   7.695  13.757  1.00  0.00    +0.195 C 
ATOM      2  C   UNL     1       3.751   6.207  13.469  1.00  0.00    +0.037 C 
ATOM      3  C   UNL     1       2.600   5.864  12.535  1.00  0.00    +0.005 C 
ATOM      4  C   UNL     1       1.325   6.442  13.121  1.00  0.00    +0.022 C 
ATOM      5  C   UNL     1       1.446   7.924  13.300  1.00  0.00    +0.121 C 
ATOM      6  N   UNL     1       2.573   8.177  14.211  1.00  0.00    -0.322 N 
ENDROOT
BRANCH   1   7
ATOM      7  C   UNL     1       4.480   8.436  12.562  1.00  0.00    +0.329 C 
ATOM      8  O   UNL     1       5.246   7.849  11.800  1.00  0.00    -0.250 OA
BRANCH   7   9
ATOM      9  O   UNL     1       4.210   9.809  12.311  1.00  0.00    -0.460 OA
BRANCH   9  10
ATOM     10  C   UNL     1       4.620  10.851  13.125  1.00  0.00    +0.186 C 
BRANCH  10  11
ATOM     11  C   UNL     1       6.088  11.023  12.792  1.00  0.00    +0.121 C 
BRANCH  11  12
ATOM     12  C   UNL     1       6.911  11.451  14.002  1.00  0.00    +0.143 C 
ATOM     13  O   UNL     1       6.628  11.092  15.149  1.00  0.00    -0.299 OA
BRANCH  12  14
ATOM     14  C   UNL     1       8.074  12.399  13.710  1.00  0.00    +0.076 C 
ATOM     15  C   UNL     1       7.671  13.391  12.607  1.00  0.00    +0.020 C 
BRANCH  14  16
ATOM     16  C   UNL     1       9.289  11.591  13.231  1.00  0.00    -0.014 C 
ATOM     17  C   UNL     1      10.583  11.910  13.250  1.00  0.00    -0.045 C 
ATOM     18  C   UNL     1      11.089  13.254  13.736  1.00  0.00    +0.042 C 
BRANCH  17  19
ATOM     19  C   UNL     1      11.690  10.953  12.766  1.00  0.00    +0.176 C 
BRANCH  19  20
ATOM     20  C   UNL     1      11.428  10.363  11.343  1.00  0.00    +0.217 C 
BRANCH  20  21
ATOM     21  C   UNL     1      12.491   9.367  10.892  1.00  0.00    +0.167 CG0
ATOM     22  O   UNL     1      12.200   8.330  10.300  1.00  0.00    -0.296 OA
ATOM     23  G   UNL     1      13.939   9.726  11.201  1.00  0.00    +0.000 G0
ENDBRANCH  20  21
BRANCH  20  24
ATOM     24  O   UNL     1      11.420  11.446  10.452  1.00  0.00    -0.371 OA
ATOM     25  C   UNL     1      10.375  11.466   9.544  1.00  0.00    +0.196 C 
ENDBRANCH  20  24
ENDBRANCH  19  20
BRANCH  19  26
ATOM     26  O   UNL     1      11.811   9.850  13.676  1.00  0.00    -0.386 OA
ATOM     27  H   UNL     1      24.400   1.976  25.316  1.00  0.00    +0.211 HD
ENDBRANCH  19  26
ENDBRANCH  17  19
ENDBRANCH  14  16
ENDBRANCH  12  14
ENDBRANCH  11  12
ENDBRANCH  10  11
BRANCH  10  28
ATOM     28  C   UNL     1       3.658  12.020  12.831  1.00  0.00    +0.028 C 
ATOM     29  C   UNL     1       3.468  12.914  14.023  1.00  0.00    +0.011 C 
BRANCH  28  30
ATOM     30  C   UNL     1       2.309  11.536  12.305  1.00  0.00    +0.010 C 
BRANCH  30  31
ATOM     31  C   UNL     1       1.130  12.508  12.397  1.00  0.00    -0.008 C 
ATOM     32  C   UNL     1       0.620  12.850  10.992  1.00  0.00    +0.038 C 
ATOM     33  C   UNL     1      -0.022  12.059  13.296  1.00  0.00    +0.006 C 
ATOM     34  C   UNL     1      -0.484  13.910  10.999  1.00  0.00    +0.146 C 
ATOM     35  C   UNL     1      -1.134  13.095  13.377  1.00  0.00    +0.035 C 
ATOM     36  C   UNL     1      -1.636  13.476  11.970  1.00  0.00    +0.143 C 
BRANCH  34  37
ATOM     37  O   UNL     1      -0.961  13.997   9.681  1.00  0.00    -0.379 OA
ATOM     38  C   UNL     1      -0.220  14.769   8.800  1.00  0.00    +0.195 C 
ENDBRANCH  34  37
BRANCH  36  39
ATOM     39  O   UNL     1      -2.577  14.543  12.084  1.00  0.00    -0.390 OA
ATOM     40  H   UNL     1       4.748  26.215  25.029  1.00  0.00    +0.211 HD
ENDBRANCH  36  39
ENDBRANCH  30  31
ENDBRANCH  28  30
ENDBRANCH  10  28
ENDBRANCH   9  10
ENDBRANCH   7   9
ENDBRANCH   1   7
BRANCH   6  41
ATOM     41  C   UNL     1       2.476   8.955  15.301  1.00  0.00    +0.296 C 
ATOM     42  O   UNL     1       1.744   9.952  15.248  1.00  0.00    -0.265 OA
BRANCH  41  43
ATOM     43  C   UNL     1       3.231   8.731  16.473  1.00  0.00    +0.279 C 
ATOM     44  O   UNL     1       4.326   9.293  16.601  1.00  0.00    -0.282 OA
BRANCH  43  45
ATOM     45  C   UNL     1       2.738   7.814  17.608  1.00  0.00    +0.239 C 
ATOM     46  C   UNL     1       3.851   7.499  18.689  1.00  0.00    +0.054 C 
ATOM     47  O   UNL     1       1.682   8.515  18.222  1.00  0.00    -0.340 OA
ATOM     48  C   UNL     1       3.237   6.850  19.951  1.00  0.00    +0.012 C 
ATOM     49  C   UNL     1       1.040   7.979  19.323  1.00  0.00    +0.125 C 
ATOM     50  C   UNL     1       2.036   7.651  20.432  1.00  0.00    +0.033 C 
ATOM     51  C   UNL     1       5.059   6.663  18.175  1.00  0.00    +0.014 C 
BRANCH  45  52
ATOM     52  O   UNL     1       2.281   6.584  17.040  1.00  0.00    -0.359 OA
ATOM     53  H   UNL     1      19.419   8.144  26.796  1.00  0.00    +0.214 HD
ENDBRANCH  45  52
BRANCH  49  54
ATOM     54  C   UNL     1       0.093   9.070  19.792  1.00  0.00    +0.068 C 
BRANCH  54  55
ATOM     55  C   UNL     1      -0.190  10.199  18.808  1.00  0.00    +0.146 C 
BRANCH  55  56
ATOM     56  O   UNL     1      -0.075  11.404  19.497  1.00  0.00    -0.377 OA
ATOM     57  C   UNL     1       1.106  11.596  20.210  1.00  0.00    +0.195 C 
ENDBRANCH  55  56
BRANCH  55  58
ATOM     58  C   UNL     1      -1.581  10.084  18.223  1.00  0.00    -0.045 C 
ATOM     59  C   UNL     1      -1.788  10.530  16.991  1.00  0.00    +0.002 C 
ATOM     60  C   UNL     1      -2.647   9.475  19.150  1.00  0.00    +0.042 C 
BRANCH  59  61
ATOM     61  C   UNL     1      -3.071  10.463  16.278  1.00  0.00    +0.000 C 
ATOM     62  C   UNL     1      -3.091  10.032  15.025  1.00  0.00    -0.000 C 
BRANCH  62  63
ATOM     63  C   UNL     1      -4.362   9.850  14.299  1.00  0.00    -0.004 C 
ATOM     64  C   UNL     1      -4.711  10.638  13.300  1.00  0.00    -0.024 C 
BRANCH  64  65
ATOM     65  C   UNL     1      -5.946  10.433  12.449  1.00  0.00    +0.009 C 
ATOM     66  C   UNL     1      -6.942   9.515  13.142  1.00  0.00    +0.012 C 
BRANCH  65  67
ATOM     67  C   UNL     1      -6.550  11.808  12.221  1.00  0.00    +0.018 C 
BRANCH  67  68
ATOM     68  C   UNL     1      -6.858  12.643  13.450  1.00  0.00    +0.056 CG0
ATOM     69  C   UNL     1      -6.660  14.137  13.183  1.00  0.00    +0.016 C 
ATOM     70  G   UNL     1      -8.268  12.364  13.954  1.00  0.00    +0.000 G0
ENDBRANCH  67  68
ENDBRANCH  65  67
ENDBRANCH  64  65
ENDBRANCH  62  63
ENDBRANCH  59  61
ENDBRANCH  55  58
ENDBRANCH  54  55
ENDBRANCH  49  54
ENDBRANCH  43  45
ENDBRANCH  41  43
ENDBRANCH   6  41
TORSDOF 9
ENDMDL
