MODEL 1
REMARK VINA RESULT:    -8.524      0.000      0.000
REMARK INTER + INTRA:         -12.935
REMARK INTER:                 -12.013
REMARK INTRA:                  -0.922
REMARK UNBOUND:                -0.922
REMARK SMILES O=C(O)c1cc(N=Nc2ccc(S(=O)(=O)Nc3ccccn3)cc2)ccc1O
REMARK SMILES IDX 8 1 7 2 9 3 12 4 11 5 23 6 10 7 24 8 13 9 14 10 15 11 16 12
REMARK SMILES IDX 17 14 19 15 20 16 18 17 21 18 22 19 6 20 5 21 25 22 4 23
REMARK SMILES IDX 26 24 27 25 2 26 1 27 3 28 28 30
REMARK H PARENT 16 13 3 29 28 31
ROOT
ATOM      1  N   UNL     1     146.371 142.877 125.549  1.00  0.00    -0.151 NA
ATOM      2  N   UNL     1     145.773 143.562 126.408  1.00  0.00    -0.151 NA
ENDROOT
BRANCH   1   3
ATOM      3  C   UNL     1     146.054 143.323 124.252  1.00  0.00    +0.086 A 
ATOM      4  C   UNL     1     145.374 144.287 121.712  1.00  0.00    +0.088 A 
ATOM      5  C   UNL     1     146.712 144.014 122.013  1.00  0.00    +0.024 A 
ATOM      6  C   UNL     1     144.373 144.072 122.664  1.00  0.00    +0.024 A 
ATOM      7  C   UNL     1     147.047 143.542 123.285  1.00  0.00    +0.031 A 
ATOM      8  C   UNL     1     144.720 143.601 123.932  1.00  0.00    +0.031 A 
BRANCH   4   9
ATOM      9  S   UNL     1     144.946 144.850 120.084  1.00  0.00    +0.263 S 
ATOM     10  O   UNL     1     143.643 144.340 119.717  1.00  0.00    -0.201 OA
ATOM     11  O   UNL     1     146.095 144.575 119.239  1.00  0.00    -0.201 OA
BRANCH   9  12
ATOM     12  N   UNL     1     144.890 146.514 120.218  1.00  0.00    -0.263 N 
ATOM     13  H   UNL     1     145.563 146.978 119.617  1.00  0.00    +0.182 HD
BRANCH  12  14
ATOM     14  C   UNL     1     143.665 147.143 120.498  1.00  0.00    +0.139 A 
ATOM     15  C   UNL     1     141.823 148.493 119.803  1.00  0.00    +0.005 A 
ATOM     16  C   UNL     1     141.395 148.525 121.126  1.00  0.00    +0.020 A 
ATOM     17  C   UNL     1     142.986 147.798 119.482  1.00  0.00    +0.048 A 
ATOM     18  C   UNL     1     142.159 147.866 122.073  1.00  0.00    +0.113 A 
ATOM     19  N   UNL     1     143.293 147.190 121.787  1.00  0.00    -0.239 NA
ENDBRANCH  12  14
ENDBRANCH   9  12
ENDBRANCH   4   9
ENDBRANCH   1   3
BRANCH   2  20
ATOM     20  C   UNL     1     146.107 143.121 127.701  1.00  0.00    +0.087 A 
ATOM     21  C   UNL     1     146.583 144.045 128.638  1.00  0.00    +0.049 A 
ATOM     22  C   UNL     1     145.928 141.786 128.086  1.00  0.00    +0.034 A 
ATOM     23  C   UNL     1     146.898 143.639 129.942  1.00  0.00    +0.103 A 
ATOM     24  C   UNL     1     146.239 141.373 129.382  1.00  0.00    +0.049 A 
ATOM     25  C   UNL     1     146.723 142.295 130.305  1.00  0.00    +0.130 A 
BRANCH  23  26
ATOM     26  C   UNL     1     147.408 144.601 130.940  1.00  0.00    +0.339 C 
ATOM     27  O   UNL     1     146.742 145.496 131.434  1.00  0.00    -0.246 OA
BRANCH  26  28
ATOM     28  O   UNL     1     148.696 144.410 131.270  1.00  0.00    -0.478 OA
ATOM     29  H   UNL     1     149.175 144.387 130.416  1.00  0.00    +0.297 HD
ENDBRANCH  26  28
ENDBRANCH  23  26
BRANCH  25  30
ATOM     30  O   UNL     1     147.003 141.806 131.554  1.00  0.00    -0.507 OA
ATOM     31  H   UNL     1     147.963 141.612 131.613  1.00  0.00    +0.293 HD
ENDBRANCH  25  30
ENDBRANCH   2  20
TORSDOF 8
ENDMDL
